      -----------------------------------------------------------      
     |                   =====================                   |     
     |                           x T B                           |     
     |                   =====================                   |     
     |                         S. Grimme                         |     
     |          Mulliken Center for Theoretical Chemistry        |     
     |                    University of Bonn                     |     
      -----------------------------------------------------------      

   * xtb version 6.6.0 (8843059) compiled by 'stahn@majestix' on 2023-02-09

   xtb is free software: you can redistribute it and/or modify it under
   the terms of the GNU Lesser General Public License as published by
   the Free Software Foundation, either version 3 of the License, or
   (at your option) any later version.
   
   xtb is distributed in the hope that it will be useful,
   but WITHOUT ANY WARRANTY; without even the implied warranty of
   MERCHANTABILITY or FITNESS FOR A PARTICULAR PURPOSE.  See the
   GNU Lesser General Public License for more details.
   
   Cite this work as:
   * C. Bannwarth, E. Caldeweyher, S. Ehlert, A. Hansen, P. Pracht,
     J. Seibert, S. Spicher, S. Grimme, WIREs Comput. Mol. Sci., 2020, 11,
     e01493. DOI: 10.1002/wcms.1493
   
   for GFN2-xTB:
   * C. Bannwarth, S. Ehlert and S. Grimme., J. Chem. Theory Comput., 2019,
     15, 1652-1671. DOI: 10.1021/acs.jctc.8b01176
   for GFN1-xTB:
   * S. Grimme, C. Bannwarth, P. Shushkov, J. Chem. Theory Comput., 2017,
     13, 1989-2009. DOI: 10.1021/acs.jctc.7b00118
   for GFN0-xTB:
   * P. Pracht, E. Caldeweyher, S. Ehlert, S. Grimme, ChemRxiv, 2019, preprint.
     DOI: 10.26434/chemrxiv.8326202.v1
   for GFN-FF:
   * S. Spicher and S. Grimme, Angew. Chem. Int. Ed., 2020, 59, 15665-15673.
     DOI: 10.1002/anie.202004239
   
   for ALPB and GBSA implicit solvation:
   * S. Ehlert, M. Stahn, S. Spicher, S. Grimme, J. Chem. Theory Comput.,
     2021, 17, 4250-4261. DOI: 10.1021/acs.jctc.1c00471
   
   for DFT-D4:
   * E. Caldeweyher, C. Bannwarth and S. Grimme, J. Chem. Phys., 2017,
     147, 034112. DOI: 10.1063/1.4993215
   * E. Caldeweyher, S. Ehlert, A. Hansen, H. Neugebauer, S. Spicher,
     C. Bannwarth and S. Grimme, J. Chem. Phys., 2019, 150, 154122.
     DOI: 10.1063/1.5090222
   * E. Caldeweyher, J.-M. Mewes, S. Ehlert and S. Grimme, Phys. Chem. Chem. Phys.
     2020, 22, 8499-8512. DOI: 10.1039/D0CP00502A
   
   for sTDA-xTB:
   * S. Grimme and C. Bannwarth, J. Chem. Phys., 2016, 145, 054103.
     DOI: 10.1063/1.4959605
   
   in the mass-spec context:
   * V. Asgeirsson, C. Bauer and S. Grimme, Chem. Sci., 2017, 8, 4879.
     DOI: 10.1039/c7sc00601b
   * J. Koopman and S. Grimme, ACS Omega 2019, 4, 12, 15120-15133.
     DOI: 10.1021/acsomega.9b02011
   
   for metadynamics refer to:
   * S. Grimme, J. Chem. Theory Comput., 2019, 155, 2847-2862
     DOI: 10.1021/acs.jctc.9b00143
   
   for SPH calculations refer to:
   * S. Spicher and S. Grimme, J. Chem. Theory Comput., 2021, 17, 1701-1714
     DOI: 10.1021/acs.jctc.0c01306
   
   with help from (in alphabetical order)
   P. Atkinson, C. Bannwarth, F. Bohle, G. Brandenburg, E. Caldeweyher
   M. Checinski, S. Dohm, S. Ehlert, S. Ehrlich, I. Gerasimov, C. Hölzer
   A. Katbashev, J. Koopman, C. Lavigne, S. Lehtola, F. März, M. Müller,
   F. Musil, H. Neugebauer, J. Pisarek, C. Plett, P. Pracht, F. Pultar,
   J. Seibert, P. Shushkov, S. Spicher, M. Stahn, M. Steiner, T. Strunk,
   J. Stückrath, T. Rose, and J. Unsleber
   
 * started run on 2024/04/10 at 15:22:06.501     

           -------------------------------------------------
          |                Calculation Setup                |
           -------------------------------------------------

          program call               : xtb --md --input md.inp 1.xyz
          hostname                   : comp2
          coordinate file            : 1.xyz
          omp threads                :                    12

   ID    Z sym.   atoms
    1    8 O      1, 4, 7, 10, 13, 38
    2   17 Cl     2, 33, 34, 43
    3    1 H      3, 5, 6, 8, 9, 11, 12, 14, 15, 22, 23, 28, 31, 32, 36, 40-42
    4    6 C      16-21, 24-27, 29, 30, 37
    5    7 N      35, 39
spherical wallpotenial with radius    6.0855385 Å

molecular fragmentation (1/2 indicates fragments):
1112222222222222222222222222222222222222222
# atoms in fragment 1/2:     3    40
 fragment masses (1/2) :       52.46      387.64
CMA distance (Bohr)    :   9.541
constraining FC (au)   :  0.0500

           -------------------------------------------------
          |                 G F N 2 - x T B                 |
           -------------------------------------------------

        Reference                      10.1021/acs.jctc.8b01176
      * Hamiltonian:
        H0-scaling (s, p, d)           1.850000    2.230000    2.230000
        zeta-weighting                 0.500000
      * Dispersion:
        s8                             2.700000
        a1                             0.520000
        a2                             5.000000
        s9                             5.000000
      * Repulsion:
        kExp                           1.500000    1.000000
        rExp                           1.000000
      * Coulomb:
        alpha                          2.000000
        third order                    shell-resolved
        anisotropic                    true
        a3                             3.000000
        a5                             4.000000
        cn-shift                       1.200000
        cn-exp                         4.000000
        max-rad                        5.000000


          ...................................................
          :                      SETUP                      :
          :.................................................:
          :  # basis functions                 142          :
          :  # atomic orbitals                 138          :
          :  # shells                           72          :
          :  # electrons                       144          :
          :  max. iterations                   800          :
          :  Hamiltonian                  GFN2-xTB          :
          :  restarted?                      false          :
          :  GBSA solvation                  false          :
          :  PC potential                    false          :
          :  electronic temp.         6000.0000000     K    :
          :  accuracy                    1.0000000          :
          :  -> integral cutoff          0.2500000E+02      :
          :  -> integral neglect         0.1000000E-07      :
          :  -> SCF convergence          0.1000000E-05 Eh   :
          :  -> wf. convergence          0.1000000E-03 e    :
          :  Broyden damping             0.4000000          :
          ...................................................

 iter      E             dE          RMSdq      gap      omega  full diag
   1    -86.1232603 -0.861233E+02  0.460E+00    3.10       0.0  T
   2    -86.2194134 -0.961531E-01  0.269E+00    3.56       1.0  T
   3    -86.2154281  0.398527E-02  0.115E+00    3.38       1.0  T
   4    -86.2284432 -0.130151E-01  0.368E-01    3.42       1.0  T
   5    -86.2319523 -0.350913E-02  0.133E-01    3.44       1.0  T
   6    -86.2320588 -0.106495E-03  0.827E-02    3.47       1.0  T
   7    -86.2321510 -0.921322E-04  0.566E-02    3.47       1.0  T
   8    -86.2321901 -0.391632E-04  0.375E-02    3.46       1.0  T
   9    -86.2322109 -0.208130E-04  0.256E-02    3.45       1.0  T
  10    -86.2322235 -0.125841E-04  0.151E-02    3.44       1.0  T
  11    -86.2322283 -0.474424E-05  0.914E-03    3.44       1.7  T
  12    -86.2322298 -0.150862E-05  0.703E-03    3.44       2.2  T
  13    -86.2322309 -0.113641E-05  0.508E-03    3.43       3.0  T
  14    -86.2322315 -0.590276E-06  0.329E-03    3.43       4.6  T
  15    -86.2322319 -0.371724E-06  0.146E-03    3.43      10.4  T
  16    -86.2322319 -0.482445E-07  0.700E-04    3.43      21.8  T
  17    -86.2322319 -0.601125E-08  0.514E-04    3.43      29.7  T

   *** convergence criteria satisfied after 17 iterations ***

         #    Occupation            Energy/Eh            Energy/eV
      -------------------------------------------------------------
         1        2.0000           -1.0679883             -29.0614
       ...           ...                  ...                  ...
        66        1.9886           -0.4247827             -11.5589
        67        1.9882           -0.4240731             -11.5396
        68        1.9870           -0.4221840             -11.4882
        69        1.9849           -0.4194229             -11.4131
        70        1.9791           -0.4131416             -11.2422
        71        1.9545           -0.3981525             -10.8343
        72        1.9328           -0.3905186             -10.6266 (HOMO)
        73        0.0732           -0.2645388              -7.1985 (LUMO)
        74        0.0666           -0.2627049              -7.1486
        75        0.0443           -0.2547154              -6.9312
        76        0.0321           -0.2484649              -6.7611
        77        0.0216           -0.2408329              -6.5534
       ...           ...                  ...                  ...
       138                          0.6628136              18.0361
      -------------------------------------------------------------
                  HL-Gap            0.1259798 Eh            3.4281 eV
             Fermi-level           -0.3266926 Eh           -8.8898 eV

 SCC (total)                   0 d,  0 h,  0 min,  0.106 sec
 SCC setup                      ...        0 min,  0.000 sec (  0.388%)
 Dispersion                     ...        0 min,  0.001 sec (  0.780%)
 classical contributions        ...        0 min,  0.000 sec (  0.094%)
 integral evaluation            ...        0 min,  0.010 sec (  9.286%)
 iterations                     ...        0 min,  0.087 sec ( 82.560%)
 molecular gradient             ...        0 min,  0.007 sec (  6.498%)
 printout                       ...        0 min,  0.000 sec (  0.273%)

         :::::::::::::::::::::::::::::::::::::::::::::::::::::
         ::                     SUMMARY                     ::
         :::::::::::::::::::::::::::::::::::::::::::::::::::::
         :: total energy             -85.345288431420 Eh    ::
         :: gradient norm              0.034244390191 Eh/a0 ::
         :: HOMO-LUMO gap              3.428084375444 eV    ::
         ::.................................................::
         :: SCC energy               -86.232231938142 Eh    ::
         :: -> isotropic ES            0.200034727756 Eh    ::
         :: -> anisotropic ES         -0.003945467274 Eh    ::
         :: -> anisotropic XC          0.011119703222 Eh    ::
         :: -> dispersion             -0.038443158171 Eh    ::
         :: repulsion energy           0.841594482946 Eh    ::
         :: add. restraining           0.045019549828 Eh    ::
         :: total charge               0.000000000006 e     ::
         :::::::::::::::::::::::::::::::::::::::::::::::::::::

           -------------------------------------------------
          |                Property Printout                |
           -------------------------------------------------

    * Orbital Energies and Occupations

         #    Occupation            Energy/Eh            Energy/eV
      -------------------------------------------------------------
         1        2.0000           -1.0679883             -29.0614
       ...           ...                  ...                  ...
        60        1.9950           -0.4406184             -11.9898
        61        1.9947           -0.4395025             -11.9595
        62        1.9940           -0.4369256             -11.8893
        63        1.9937           -0.4361006             -11.8669
        64        1.9910           -0.4292120             -11.6795
        65        1.9904           -0.4281430             -11.6504
        66        1.9886           -0.4247827             -11.5589
        67        1.9882           -0.4240731             -11.5396
        68        1.9870           -0.4221840             -11.4882
        69        1.9849           -0.4194229             -11.4131
        70        1.9791           -0.4131416             -11.2422
        71        1.9545           -0.3981525             -10.8343
        72        1.9328           -0.3905186             -10.6266 (HOMO)
        73        0.0732           -0.2645388              -7.1985 (LUMO)
        74        0.0666           -0.2627049              -7.1486
        75        0.0443           -0.2547154              -6.9312
        76        0.0321           -0.2484649              -6.7611
        77        0.0216           -0.2408329              -6.5534
        78        0.0024           -0.1989125              -5.4127
        79        0.0003           -0.1560173              -4.2454
        80        0.0002           -0.1475746              -4.0157
        81        0.0001           -0.1386604              -3.7731
        82        0.0000           -0.1245839              -3.3901
        83        0.0000           -0.1144255              -3.1137
       ...           ...                  ...                  ...
       138                          0.6628136              18.0361
      -------------------------------------------------------------
                  HL-Gap            0.1259798 Eh            3.4281 eV
             Fermi-level           -0.3266926 Eh           -8.8898 eV

     #   Z          covCN         q      C6AA      α(0)
     1   8 O        1.733    -0.395    20.730     6.148
     2  17 Cl       0.935     0.020    98.602    15.191
     3   1 H        0.812     0.320     0.664     1.279
     4   8 O        1.611    -0.566    24.396     6.666
     5   1 H        0.805     0.281     0.780     1.387
     6   1 H        0.805     0.286     0.765     1.374
     7   8 O        1.611    -0.562    24.303     6.654
     8   1 H        0.805     0.286     0.766     1.374
     9   1 H        0.805     0.278     0.790     1.396
    10   8 O        1.611    -0.562    24.301     6.653
    11   1 H        0.805     0.280     0.784     1.391
    12   1 H        0.805     0.285     0.767     1.376
    13   8 O        1.611    -0.564    24.339     6.659
    14   1 H        0.805     0.285     0.767     1.376
    15   1 H        0.805     0.285     0.767     1.376
    16   6 C        2.908     0.081    26.204     8.394
    17   6 C        2.954    -0.040    28.986     8.831
    18   6 C        2.922    -0.062    29.546     8.914
    19   6 C        2.903     0.077    26.283     8.406
    20   6 C        2.958    -0.061    29.519     8.912
    21   6 C        2.910     0.088    26.047     8.369
    22   1 H        0.925     0.070     2.084     2.258
    23   1 H        0.925     0.043     2.410     2.427
    24   6 C        2.901     0.079    26.245     8.400
    25   6 C        2.917    -0.048    29.183     8.859
    26   6 C        2.925    -0.050    29.238     8.867
    27   6 C        2.948    -0.039    28.977     8.829
    28   1 H        0.926     0.085     1.931     2.173
    29   6 C        2.946    -0.036    28.907     8.818
    30   6 C        2.884     0.091    25.969     8.354
    31   1 H        0.925     0.062     2.178     2.308
    32   1 H        0.925     0.062     2.177     2.307
    33  17 Cl       0.966    -0.129   103.177    15.540
    34  17 Cl       0.954    -0.164   104.298    15.624
    35   7 N        2.702    -0.179    24.868     7.406
    36   1 H        0.860     0.176     1.239     1.744
    37   6 C        2.683     0.328    21.429     7.575
    38   8 O        0.858    -0.435    22.382     6.343
    39   7 N        2.701    -0.175    24.784     7.394
    40   1 H        0.860     0.179     1.221     1.731
    41   1 H        0.925     0.045     2.384     2.415
    42   1 H        0.926     0.110     1.698     2.038
    43  17 Cl       0.976    -0.112   102.645    15.500

 Mol. C6AA /au·bohr⁶  :      27987.637923
 Mol. C8AA /au·bohr⁸  :     761671.363528
 Mol. α(0) /au        :        259.034967


Wiberg/Mayer (AO) data.
largest (>0.10) Wiberg bond orders for each atom

 ---------------------------------------------------------------------------
     #   Z sym  total        # sym  WBO       # sym  WBO       # sym  WBO
 ---------------------------------------------------------------------------
     1   8 O    1.881 --     2 Cl   0.987     3 H    0.894
     2  17 Cl   0.990 --     1 O    0.987
     3   1 H    0.897 --     1 O    0.894
     4   8 O    1.838 --     5 H    0.920     6 H    0.918
     5   1 H    0.921 --     4 O    0.920
     6   1 H    0.918 --     4 O    0.918
     7   8 O    1.840 --     9 H    0.922     8 H    0.918
     8   1 H    0.918 --     7 O    0.918
     9   1 H    0.923 --     7 O    0.922
    10   8 O    1.839 --    11 H    0.921    12 H    0.918
    11   1 H    0.922 --    10 O    0.921
    12   1 H    0.919 --    10 O    0.918
    13   8 O    1.836 --    14 H    0.918    15 H    0.918
    14   1 H    0.919 --    13 O    0.918
    15   1 H    0.919 --    13 O    0.918
    16   6 C    3.876 --    17 C    1.376    21 C    1.349    33 Cl   0.988
    17   6 C    3.949 --    18 C    1.450    16 C    1.376    22 H    0.964
    18   6 C    3.940 --    17 C    1.450    19 C    1.337    23 H    0.965
    19   6 C    3.926 --    20 C    1.361    18 C    1.337    35 N    1.089
    20   6 C    3.931 --    21 C    1.394    19 C    1.361    42 H    0.950
    21   6 C    3.889 --    20 C    1.394    16 C    1.349    43 Cl   0.998
    22   1 H    0.994 --    17 C    0.964
    23   1 H    0.997 --    18 C    0.965
    24   6 C    3.925 --    25 C    1.358    26 C    1.351    39 N    1.079
    25   6 C    3.945 --    27 C    1.440    24 C    1.358    28 H    0.957
    26   6 C    3.949 --    29 C    1.449    24 C    1.351    41 H    0.964
    27   6 C    3.955 --    25 C    1.440    30 C    1.393    31 H    0.966
    28   1 H    0.991 --    25 C    0.957
    29   6 C    3.956 --    26 C    1.449    30 C    1.385    32 H    0.966
    30   6 C    3.874 --    27 C    1.393    29 C    1.385    34 Cl   0.966
    31   1 H    0.995 --    27 C    0.966
    32   1 H    0.995 --    29 C    0.966
    33  17 Cl   1.114 --    16 C    0.988
    34  17 Cl   1.083 --    30 C    0.966
    35   7 N    3.427 --    37 C    1.114    19 C    1.089    36 H    0.935
                            38 O    0.127
    36   1 H    0.968 --    35 N    0.935
    37   6 C    3.935 --    38 O    1.627    39 N    1.133    35 N    1.114
    38   8 O    1.977 --    37 C    1.627    39 N    0.132    35 N    0.127
    39   7 N    3.432 --    37 C    1.133    24 C    1.079    40 H    0.933
                            38 O    0.132
    40   1 H    0.967 --    39 N    0.933
    41   1 H    0.997 --    26 C    0.964
    42   1 H    0.987 --    20 C    0.950
    43  17 Cl   1.133 --    21 C    0.998
 ---------------------------------------------------------------------------

Topologies differ in total number of bonds
Writing topology from bond orders to xtbtopo.mol

molecular dipole:
                 x           y           z       tot (Debye)
 q only:        0.321      -3.412      -1.072
   full:        0.546      -3.840      -1.186      10.309
molecular quadrupole (traceless):
                xx          xy          yy          xz          yz          zz
 q only:      -28.975       3.632      13.679      17.925       6.347      15.296
  q+dip:      -24.111       3.695      15.099      21.833      11.811       9.012
   full:      -24.990       4.166      15.372      22.443       8.641       9.618


           -------------------------------------------------
          | TOTAL ENERGY              -85.345288431420 Eh   |
          | GRADIENT NORM               0.034244390191 Eh/α |
          | HOMO-LUMO GAP               3.428084375444 eV   |
           -------------------------------------------------
           ------------------------------------------------- 
          |               Molecular Dynamics                |
           ------------------------------------------------- 
 trajectories on xtb.trj or xtb.trj.<n>
 
 MD time /ps        :   30.00
 dt /fs             :    0.50
 SCC accuracy       :    2.00
 temperature /K     :  280.00
 max steps          : 60000
 block length (av.) :  5000
 dumpstep(trj) /fs  :  100.00   200
 dumpstep(coords)/fs: 1000.00  2000
 H atoms mass (amu) :     1
 # deg. of freedom  :    90
 SHAKE on. # bonds  :          39  all: T
 Berendsen THERMOSTAT on
         time (ps)    <Epot>      Ekin   <T>   T     Etot
      0    0.00      0.00000   0.0900    0.    0.   -85.25528
est. speed in wall clock h for 100 ps :  1.82
    200    0.10    -84.91424   0.0645  382.  452.   -85.28593
    400    0.20    -85.13489   0.0792  430.  556.   -85.29094
    600    0.30    -85.20985   0.0576  440.  404.   -85.29633
    800    0.40    -85.24698   0.0629  435.  441.   -85.30106
   1000    0.50    -85.26932   0.0577  428.  405.   -85.30324
   1200    0.60    -85.28347   0.0445  414.  312.   -85.30562
   1400    0.70    -85.29339   0.0404  401.  283.   -85.30703
   1600    0.80    -85.30144   0.0510  394.  358.   -85.30969
   1800    0.90    -85.30872   0.0573  394.  402.   -85.31235
   2000    1.00    -85.31490   0.0433  395.  304.   -85.31557
   2200    1.10    -85.31949   0.0514  390.  361.   -85.31792
   2400    1.20    -85.32380   0.0525  388.  368.   -85.31947
   2600    1.30    -85.32731   0.0429  384.  301.   -85.32208
   2800    1.40    -85.33043   0.0444  381.  312.   -85.32351
   3000    1.50    -85.33294   0.0422  376.  296.   -85.32462
   3200    1.60    -85.33516   0.0456  372.  320.   -85.32540
   3400    1.70    -85.33740   0.0399  370.  280.   -85.32637
   3600    1.80    -85.33986   0.0515  370.  362.   -85.32997
   3800    1.90    -85.34230   0.0503  371.  353.   -85.33179
   4000    2.00    -85.34386   0.0433  367.  304.   -85.33278
   4200    2.10    -85.34522   0.0388  363.  273.   -85.33304
   4400    2.20    -85.34659   0.0427  360.  299.   -85.33305
   4600    2.30    -85.34786   0.0482  357.  339.   -85.33380
   4800    2.40    -85.34904   0.0475  355.  334.   -85.33429
block <Epot> / <T> :     -85.36732  353.     drift:  0.99D+02   Tbath : 280.
   5000    2.50    -85.35025   0.0427  353.  299.   -85.33454
   5200    2.60    -85.35127   0.0361  351.  254.   -85.33561
   5400    2.70    -85.35213   0.0430  348.  302.   -85.33550
   5600    2.80    -85.35284   0.0437  345.  307.   -85.33464
   5800    2.90    -85.35358   0.0485  342.  340.   -85.33528
   6000    3.00    -85.35455   0.0480  342.  337.   -85.33644
   6200    3.10    -85.35553   0.0396  342.  278.   -85.33780
   6400    3.20    -85.35639   0.0388  341.  273.   -85.33856
   6600    3.30    -85.35714   0.0382  340.  268.   -85.33875
   6800    3.40    -85.35776   0.0370  338.  259.   -85.33930
   7000    3.50    -85.35830   0.0341  336.  239.   -85.33865
   7200    3.60    -85.35876   0.0400  333.  281.   -85.33768
   7400    3.70    -85.35924   0.0427  332.  300.   -85.33761
   7600    3.80    -85.35976   0.0438  331.  307.   -85.33766
   7800    3.90    -85.36044   0.0456  331.  320.   -85.33942
   8000    4.00    -85.36104   0.0448  330.  315.   -85.34020
   8200    4.10    -85.36158   0.0489  330.  343.   -85.34114
   8400    4.20    -85.36218   0.0503  329.  353.   -85.34187
   8600    4.30    -85.36282   0.0493  329.  346.   -85.34321
   8800    4.40    -85.36344   0.0453  329.  318.   -85.34481
   9000    4.50    -85.36393   0.0278  328.  195.   -85.34513
   9200    4.60    -85.36437   0.0427  327.  300.   -85.34511
   9400    4.70    -85.36486   0.0522  326.  367.   -85.34554
   9600    4.80    -85.36547   0.0495  327.  347.   -85.34738
   9800    4.90    -85.36609   0.0399  327.  280.   -85.34852
  10000    5.00    -85.36656   0.0455  326.  319.   -85.34902
block <Epot> / <T> :     -85.38289  299.     drift:  0.99D+02   Tbath : 280.
  10200    5.10    -85.36705   0.0426  326.  299.   -85.34908
  10400    5.20    -85.36749   0.0431  325.  302.   -85.34975
  10600    5.30    -85.36793   0.0371  324.  260.   -85.34933
  10800    5.40    -85.36833   0.0321  323.  225.   -85.34961
  11000    5.50    -85.36870   0.0443  322.  311.   -85.34947
  11200    5.60    -85.36911   0.0393  322.  276.   -85.34961
  11400    5.70    -85.36957   0.0439  322.  308.   -85.35093
  11600    5.80    -85.37000   0.0435  321.  305.   -85.35118
  11800    5.90    -85.37051   0.0506  322.  355.   -85.35349
  12000    6.00    -85.37103   0.0506  322.  355.   -85.35490
  12200    6.10    -85.37148   0.0395  322.  277.   -85.35622
  12400    6.20    -85.37196   0.0417  322.  293.   -85.35678
  12600    6.30    -85.37234   0.0415  321.  291.   -85.35632
  12800    6.40    -85.37277   0.0445  321.  312.   -85.35702
  13000    6.50    -85.37322   0.0501  320.  352.   -85.35837
  13200    6.60    -85.37363   0.0318  320.  223.   -85.35876
  13400    6.70    -85.37398   0.0435  319.  306.   -85.35856
  13600    6.80    -85.37432   0.0372  319.  261.   -85.35802
  13800    6.90    -85.37466   0.0389  318.  273.   -85.35745
  14000    7.00    -85.37498   0.0365  317.  256.   -85.35727
  14200    7.10    -85.37534   0.0388  317.  272.   -85.35923
  14400    7.20    -85.37573   0.0440  317.  309.   -85.35900
  14600    7.30    -85.37608   0.0340  317.  239.   -85.35991
  14800    7.40    -85.37635   0.0363  316.  254.   -85.35910
  15000    7.50    -85.37663   0.0340  315.  239.   -85.35917
block <Epot> / <T> :     -85.39676  294.     drift:  0.99D+02   Tbath : 280.
  15200    7.60    -85.37694   0.0367  315.  258.   -85.35878
  15400    7.70    -85.37720   0.0345  314.  242.   -85.35835
  15600    7.80    -85.37752   0.0432  314.  303.   -85.35899
  15800    7.90    -85.37785   0.0487  314.  341.   -85.36051
  16000    8.00    -85.37817   0.0447  314.  314.   -85.36070
  16200    8.10    -85.37847   0.0425  314.  299.   -85.36124
  16400    8.20    -85.37878   0.0411  314.  288.   -85.36167
  16600    8.30    -85.37903   0.0372  313.  261.   -85.36089
  16800    8.40    -85.37931   0.0431  313.  302.   -85.36132
  17000    8.50    -85.37964   0.0416  313.  292.   -85.36174
  17200    8.60    -85.37991   0.0369  312.  259.   -85.36294
  17400    8.70    -85.38014   0.0357  312.  250.   -85.36175
  17600    8.80    -85.38037   0.0469  311.  329.   -85.36169
  17800    8.90    -85.38064   0.0505  311.  354.   -85.36251
  18000    9.00    -85.38085   0.0340  311.  238.   -85.36180
  18200    9.10    -85.38108   0.0419  310.  294.   -85.36332
  18400    9.20    -85.38132   0.0361  310.  254.   -85.36151
  18600    9.30    -85.38149   0.0430  309.  302.   -85.36227
  18800    9.40    -85.38171   0.0478  309.  336.   -85.36162
  19000    9.50    -85.38191   0.0424  309.  297.   -85.36171
  19200    9.60    -85.38213   0.0402  309.  282.   -85.36139
  19400    9.70    -85.38232   0.0371  308.  260.   -85.36106
  19600    9.80    -85.38252   0.0454  308.  318.   -85.36198
  19800    9.90    -85.38273   0.0423  308.  297.   -85.36136
  20000   10.00    -85.38294   0.0421  308.  296.   -85.36244
block <Epot> / <T> :     -85.40187  285.     drift: -0.12D-01   Tbath : 280.
  20200   10.10    -85.38317   0.0362  308.  254.   -85.36244
  20400   10.20    -85.38336   0.0317  307.  223.   -85.36407
  20600   10.30    -85.38356   0.0387  307.  271.   -85.36326
  20800   10.40    -85.38374   0.0300  307.  210.   -85.36352
  21000   10.50    -85.38392   0.0455  307.  319.   -85.36332
  21200   10.60    -85.38410   0.0413  306.  290.   -85.36238
  21400   10.70    -85.38429   0.0407  306.  286.   -85.36318
  21600   10.80    -85.38445   0.0382  306.  268.   -85.36237
  21800   10.90    -85.38459   0.0337  306.  237.   -85.36206
  22000   11.00    -85.38475   0.0410  305.  288.   -85.36276
  22200   11.10    -85.38491   0.0355  305.  249.   -85.36258
  22400   11.20    -85.38505   0.0347  305.  244.   -85.36245
  22600   11.30    -85.38520   0.0380  305.  267.   -85.36279
  22800   11.40    -85.38537   0.0433  304.  304.   -85.36277
  23000   11.50    -85.38553   0.0410  304.  287.   -85.36268
  23200   11.60    -85.38569   0.0414  304.  290.   -85.36337
  23400   11.70    -85.38585   0.0371  304.  260.   -85.36314
  23600   11.80    -85.38597   0.0297  304.  209.   -85.36263
  23800   11.90    -85.38606   0.0330  303.  232.   -85.36071
  24000   12.00    -85.38618   0.0441  303.  309.   -85.36148
  24200   12.10    -85.38635   0.0384  303.  269.   -85.36327
  24400   12.20    -85.38654   0.0403  303.  283.   -85.36368
  24600   12.30    -85.38669   0.0315  303.  221.   -85.36367
  24800   12.40    -85.38679   0.0337  303.  237.   -85.36184
  25000   12.50    -85.38688   0.0364  302.  256.   -85.36369
block <Epot> / <T> :     -85.40263  280.     drift: -0.64D-02   Tbath : 280.
  25200   12.60    -85.38701   0.0417  302.  293.   -85.36167
  25400   12.70    -85.38716   0.0421  302.  295.   -85.36390
  25600   12.80    -85.38731   0.0508  302.  357.   -85.36376
  25800   12.90    -85.38744   0.0426  302.  299.   -85.36313
  26000   13.00    -85.38756   0.0436  302.  306.   -85.36388
  26200   13.10    -85.38771   0.0462  302.  325.   -85.36440
  26400   13.20    -85.38784   0.0368  302.  258.   -85.36400
  26600   13.30    -85.38794   0.0433  301.  304.   -85.36331
  26800   13.40    -85.38803   0.0351  301.  246.   -85.36170
  27000   13.50    -85.38814   0.0401  301.  281.   -85.36273
  27200   13.60    -85.38827   0.0367  301.  257.   -85.36347
  27400   13.70    -85.38835   0.0388  300.  272.   -85.36321
  27600   13.80    -85.38848   0.0446  300.  313.   -85.36415
  27800   13.90    -85.38860   0.0390  300.  273.   -85.36359
  28000   14.00    -85.38870   0.0377  300.  265.   -85.36435
  28200   14.10    -85.38879   0.0400  300.  280.   -85.36354
  28400   14.20    -85.38887   0.0409  300.  287.   -85.36342
  28600   14.30    -85.38893   0.0406  299.  285.   -85.36200
  28800   14.40    -85.38900   0.0345  299.  242.   -85.36059
  29000   14.50    -85.38905   0.0315  299.  221.   -85.36087
  29200   14.60    -85.38911   0.0412  299.  289.   -85.36069
  29400   14.70    -85.38919   0.0458  298.  322.   -85.36106
  29600   14.80    -85.38927   0.0480  298.  337.   -85.36000
  29800   14.90    -85.38936   0.0403  298.  283.   -85.35994
  30000   15.00    -85.38947   0.0415  298.  291.   -85.36220
block <Epot> / <T> :     -85.40242  279.     drift: -0.18D-02   Tbath : 280.
  30200   15.10    -85.38959   0.0445  299.  312.   -85.36197
  30400   15.20    -85.38967   0.0407  298.  285.   -85.36319
  30600   15.30    -85.38978   0.0450  298.  316.   -85.36296
  30800   15.40    -85.38984   0.0326  298.  228.   -85.36297
  31000   15.50    -85.38989   0.0397  298.  279.   -85.36179
  31200   15.60    -85.38997   0.0427  298.  299.   -85.36239
  31400   15.70    -85.39006   0.0430  298.  302.   -85.36207
  31600   15.80    -85.39014   0.0434  298.  305.   -85.36173
  31800   15.90    -85.39023   0.0438  298.  308.   -85.36277
  32000   16.00    -85.39031   0.0312  298.  219.   -85.36258
  32200   16.10    -85.39038   0.0380  297.  267.   -85.36183
  32400   16.20    -85.39046   0.0429  297.  301.   -85.36364
  32600   16.30    -85.39055   0.0421  297.  295.   -85.36240
  32800   16.40    -85.39064   0.0392  297.  275.   -85.36332
  33000   16.50    -85.39074   0.0359  297.  252.   -85.36339
  33200   16.60    -85.39083   0.0380  297.  266.   -85.36513
  33400   16.70    -85.39089   0.0393  297.  276.   -85.36352
  33600   16.80    -85.39093   0.0371  297.  260.   -85.36321
  33800   16.90    -85.39100   0.0490  297.  344.   -85.36275
  34000   17.00    -85.39109   0.0369  297.  259.   -85.36445
  34200   17.10    -85.39117   0.0364  297.  255.   -85.36354
  34400   17.20    -85.39126   0.0458  297.  322.   -85.36420
  34600   17.30    -85.39136   0.0449  297.  315.   -85.36488
  34800   17.40    -85.39144   0.0384  297.  269.   -85.36539
  35000   17.50    -85.39153   0.0350  297.  245.   -85.36608
block <Epot> / <T> :     -85.40387  285.     drift: -0.58D-03   Tbath : 280.
  35200   17.60    -85.39161   0.0415  296.  292.   -85.36592
  35400   17.70    -85.39169   0.0421  296.  295.   -85.36540
  35600   17.80    -85.39176   0.0317  296.  222.   -85.36586
  35800   17.90    -85.39182   0.0432  296.  303.   -85.36540
  36000   18.00    -85.39188   0.0427  296.  299.   -85.36409
  36200   18.10    -85.39194   0.0366  296.  257.   -85.36416
  36400   18.20    -85.39200   0.0352  296.  247.   -85.36393
  36600   18.30    -85.39204   0.0320  295.  225.   -85.36300
  36800   18.40    -85.39210   0.0385  295.  270.   -85.36243
  37000   18.50    -85.39216   0.0393  295.  276.   -85.36187
  37200   18.60    -85.39223   0.0407  295.  286.   -85.36333
  37400   18.70    -85.39230   0.0354  295.  248.   -85.36428
  37600   18.80    -85.39237   0.0410  295.  288.   -85.36491
  37800   18.90    -85.39244   0.0424  295.  298.   -85.36467
  38000   19.00    -85.39250   0.0381  295.  267.   -85.36419
  38200   19.10    -85.39256   0.0320  295.  224.   -85.36436
  38400   19.20    -85.39261   0.0391  295.  274.   -85.36378
  38600   19.30    -85.39267   0.0432  295.  303.   -85.36355
  38800   19.40    -85.39271   0.0378  295.  265.   -85.36304
  39000   19.50    -85.39277   0.0389  294.  273.   -85.36263
  39200   19.60    -85.39283   0.0420  294.  295.   -85.36364
  39400   19.70    -85.39288   0.0387  294.  272.   -85.36404
  39600   19.80    -85.39294   0.0410  294.  288.   -85.36399
  39800   19.90    -85.39300   0.0331  294.  232.   -85.36348
  40000   20.00    -85.39305   0.0416  294.  292.   -85.36379
block <Epot> / <T> :     -85.40373  278.     drift: -0.48D-03   Tbath : 280.
  40200   20.10    -85.39311   0.0389  294.  273.   -85.36453
  40400   20.20    -85.39316   0.0375  294.  263.   -85.36425
  40600   20.30    -85.39319   0.0396  294.  278.   -85.36239
  40800   20.40    -85.39324   0.0398  294.  279.   -85.36289
  41000   20.50    -85.39328   0.0342  294.  240.   -85.36274
  41200   20.60    -85.39331   0.0383  294.  269.   -85.36244
  41400   20.70    -85.39337   0.0396  294.  278.   -85.36234
  41600   20.80    -85.39342   0.0321  294.  225.   -85.36199
  41800   20.90    -85.39344   0.0398  293.  279.   -85.36195
  42000   21.00    -85.39348   0.0446  293.  313.   -85.36247
  42200   21.10    -85.39352   0.0427  293.  300.   -85.36219
  42400   21.20    -85.39355   0.0369  293.  259.   -85.36151
  42600   21.30    -85.39359   0.0388  293.  273.   -85.36180
  42800   21.40    -85.39362   0.0381  293.  267.   -85.36076
  43000   21.50    -85.39363   0.0415  293.  292.   -85.36011
  43200   21.60    -85.39366   0.0440  293.  309.   -85.36084
  43400   21.70    -85.39369   0.0361  292.  253.   -85.36091
  43600   21.80    -85.39371   0.0407  292.  286.   -85.35984
  43800   21.90    -85.39373   0.0429  292.  301.   -85.35841
  44000   22.00    -85.39374   0.0380  292.  267.   -85.35841
  44200   22.10    -85.39376   0.0399  292.  280.   -85.35924
  44400   22.20    -85.39378   0.0475  292.  334.   -85.35821
  44600   22.30    -85.39380   0.0374  292.  262.   -85.35818
  44800   22.40    -85.39382   0.0471  292.  331.   -85.35779
  45000   22.50    -85.39385   0.0435  292.  305.   -85.35957
block <Epot> / <T> :     -85.40027  274.     drift:  0.66D-03   Tbath : 280.
  45200   22.60    -85.39389   0.0420  292.  295.   -85.35981
  45400   22.70    -85.39392   0.0370  292.  259.   -85.36006
  45600   22.80    -85.39394   0.0317  292.  222.   -85.35925
  45800   22.90    -85.39395   0.0385  292.  270.   -85.35828
  46000   23.00    -85.39397   0.0390  292.  274.   -85.35916
  46200   23.10    -85.39400   0.0424  292.  298.   -85.35924
  46400   23.20    -85.39403   0.0415  292.  291.   -85.35964
  46600   23.30    -85.39405   0.0403  292.  283.   -85.35969
  46800   23.40    -85.39407   0.0484  291.  340.   -85.35931
  47000   23.50    -85.39409   0.0413  291.  290.   -85.35979
  47200   23.60    -85.39412   0.0424  291.  297.   -85.36013
  47400   23.70    -85.39415   0.0410  291.  288.   -85.36004
  47600   23.80    -85.39418   0.0416  291.  292.   -85.35925
  47800   23.90    -85.39419   0.0517  291.  363.   -85.35973
  48000   24.00    -85.39421   0.0479  291.  336.   -85.35973
  48200   24.10    -85.39423   0.0392  291.  275.   -85.35976
  48400   24.20    -85.39426   0.0469  291.  329.   -85.35990
  48600   24.30    -85.39429   0.0394  291.  277.   -85.35976
  48800   24.40    -85.39431   0.0384  291.  270.   -85.35925
  49000   24.50    -85.39433   0.0492  291.  345.   -85.36023
  49200   24.60    -85.39436   0.0397  291.  279.   -85.35984
  49400   24.70    -85.39435   0.0324  291.  227.   -85.35949
  49600   24.80    -85.39435   0.0410  291.  288.   -85.35823
  49800   24.90    -85.39437   0.0377  291.  264.   -85.35855
  50000   25.00    -85.39438   0.0392  291.  275.   -85.35782
block <Epot> / <T> :     -85.39912  278.     drift:  0.18D-02   Tbath : 280.
  50200   25.10    -85.39437   0.0371  290.  260.   -85.35708
  50400   25.20    -85.39437   0.0441  290.  310.   -85.35663
  50600   25.30    -85.39440   0.0405  290.  284.   -85.35820
  50800   25.40    -85.39442   0.0363  290.  255.   -85.35755
  51000   25.50    -85.39444   0.0423  290.  297.   -85.35854
  51200   25.60    -85.39446   0.0420  290.  295.   -85.35802
  51400   25.70    -85.39448   0.0388  290.  272.   -85.35918
  51600   25.80    -85.39449   0.0444  290.  311.   -85.35813
  51800   25.90    -85.39452   0.0472  290.  332.   -85.35924
  52000   26.00    -85.39455   0.0338  290.  237.   -85.35874
  52200   26.10    -85.39457   0.0424  290.  297.   -85.36010
  52400   26.20    -85.39460   0.0341  290.  240.   -85.36009
  52600   26.30    -85.39462   0.0356  290.  250.   -85.36116
  52800   26.40    -85.39463   0.0443  290.  311.   -85.35959
  53000   26.50    -85.39465   0.0419  290.  294.   -85.35939
  53200   26.60    -85.39468   0.0385  290.  270.   -85.35940
  53400   26.70    -85.39469   0.0407  290.  285.   -85.35997
  53600   26.80    -85.39472   0.0425  290.  298.   -85.36084
  53800   26.90    -85.39477   0.0471  290.  331.   -85.36168
  54000   27.00    -85.39480   0.0429  290.  301.   -85.36119
  54200   27.10    -85.39483   0.0429  290.  301.   -85.36227
  54400   27.20    -85.39485   0.0380  290.  267.   -85.36138
  54600   27.30    -85.39486   0.0308  290.  216.   -85.36132
  54800   27.40    -85.39488   0.0381  290.  267.   -85.35984
  55000   27.50    -85.39489   0.0475  290.  333.   -85.36022
block <Epot> / <T> :     -85.39997  283.     drift:  0.12D-02   Tbath : 280.
  55200   27.60    -85.39490   0.0425  290.  298.   -85.36099
  55400   27.70    -85.39492   0.0376  290.  264.   -85.36091
  55600   27.80    -85.39493   0.0454  290.  319.   -85.35953
  55800   27.90    -85.39496   0.0430  290.  301.   -85.36016
  56000   28.00    -85.39498   0.0411  290.  288.   -85.35919
  56200   28.10    -85.39499   0.0448  290.  315.   -85.36009
  56400   28.20    -85.39501   0.0473  290.  332.   -85.35996
  56600   28.30    -85.39503   0.0336  290.  236.   -85.36012
  56800   28.40    -85.39503   0.0384  289.  270.   -85.35946
  57000   28.50    -85.39504   0.0441  289.  309.   -85.35925
  57200   28.60    -85.39506   0.0442  289.  310.   -85.35904
  57400   28.70    -85.39507   0.0350  289.  246.   -85.35978
  57600   28.80    -85.39509   0.0454  289.  319.   -85.35922
  57800   28.90    -85.39511   0.0442  289.  310.   -85.36050
  58000   29.00    -85.39513   0.0442  289.  310.   -85.35896
  58200   29.10    -85.39517   0.0406  289.  285.   -85.35998
  58400   29.20    -85.39520   0.0432  290.  303.   -85.36244
  58600   29.30    -85.39523   0.0403  290.  282.   -85.36241
  58800   29.40    -85.39526   0.0400  290.  280.   -85.36225
  59000   29.50    -85.39529   0.0435  290.  305.   -85.36259
  59200   29.60    -85.39531   0.0379  289.  266.   -85.36185
  59400   29.70    -85.39534   0.0319  289.  224.   -85.36326
  59600   29.80    -85.39537   0.0364  289.  255.   -85.36317
  59800   29.90    -85.39538   0.0432  289.  303.   -85.36319
 average properties 
 Epot               :  -85.3954070295964     
 Epot (accurate SCC):  -85.3968344394197     
 Ekin               :  4.123220614043056E-002
 Etot               :  -85.3541748234560     
 T                  :   289.335848643579     
 thermostating problem
 normal exit of md()
########################################################################
[WARNING] Runtime exception occurred
-2- restart_readRestart: Dimension missmatch in restart file.
-1- restart_readRestart: Number of electron missmatch in restart file.
########################################################################

------------------------------------------------------------------------
 * finished run on 2024/04/10 at 15:56:30.779     
------------------------------------------------------------------------
 total:
 * wall-time:     0 d,  0 h, 34 min, 24.277 sec
 *  cpu-time:     0 d,  6 h, 52 min, 34.529 sec
 * ratio c/w:    11.992 speedup
 SCF:
 * wall-time:     0 d,  0 h,  0 min,  0.106 sec
 *  cpu-time:     0 d,  0 h,  0 min,  1.262 sec
 * ratio c/w:    11.911 speedup
 MD:
 * wall-time:     0 d,  0 h, 34 min, 24.063 sec
 *  cpu-time:     0 d,  6 h, 52 min, 32.144 sec
 * ratio c/w:    11.992 speedup

