43
 energy: -85.345288438011 gnorm: 0.034247355782 xtb: 6.6.0 (8843059)
O            2.55487673259741        5.11736430615730       -0.84650525019929
Cl           1.25291450090178        4.39248702475213       -1.67149855004286
H            2.54991333401434        4.67307799023064        0.00974895052257
O            1.84366119939074       -4.14753768196766       -0.15508815604724
H            1.93916704582706       -4.14299640049243       -1.10913066681709
H            1.29034523520832       -4.91050332032165        0.02116211957796
O           -0.67912573840597        0.27001589865256       -5.48267602545134
H           -1.27235172269276        0.99004880906232       -5.26137260053698
H           -1.07948886815172       -0.49799875872540       -5.07133435631145
O           -3.85138691681903       -2.25480309971220        3.81221649969862
H           -3.38583250566438       -3.05813706075948        3.57294278539733
H           -3.16076047234908       -1.66893524455394        4.12706988422714
O           -1.41974756527661        5.05754919210158        1.71893100511051
H           -0.75720987642797        4.51282505829278        2.14748535131104
H           -1.20678867280250        4.99478800096843        0.78616715779129
C           -5.14251394990270        0.46572649438669        0.06757413391539
C           -4.67618974221348       -0.66073461763344       -0.59902046096098
C           -3.32013887479966       -0.91133372877409       -0.68853547479527
C           -2.39446364804957       -0.03602055505669       -0.11074469155973
C           -2.85424750279423        1.09816770379415        0.55792000360823
C           -4.22115862695844        1.33679467902728        0.64164955487437
H           -5.39018358587087       -1.34012581282725       -1.04564904424408
H           -2.97621716343480       -1.79679678986724       -1.21166883108447
C            2.52847491284912        0.10884667146573        0.40500537831270
C            2.75580787916697        0.95927781994989        1.48988546877893
C            3.62014643005063       -0.42201254790627       -0.28803051822779
C            4.05909662244147        1.26731146267573        1.85896917128154
H            1.92450309655917        1.38161334448178        2.03111650982310
C            4.91858346286708       -0.11557140965260        0.08508628049699
C            5.13111659736464        0.73301197382007        1.16157122465400
H            4.23963637498573        1.92762477959137        2.69725746282814
H            5.75961119841855       -0.52898995885753       -0.45578988863551
Cl          -6.85025668791966        0.74761434729055        0.16432982289323
Cl           6.76130715197337        1.13005158387010        1.63849704245985
N           -1.03467080144764       -0.34849159284850       -0.26194720294603
H           -0.85253364193191       -1.19630659713679       -0.77555279754676
C            0.03887236877720        0.27509721347210        0.35405329918708
O           -0.07264865148315        1.19138929015115        1.13328778096024
N            1.24591891423070       -0.27726178371723       -0.02829723979748
H            1.23982998151526       -0.92785488555776       -0.79806167802316
H            3.45363102082203       -1.08302417220906       -1.13228229494314
H           -2.16341035868110        1.78639016695556        1.01733309103898
Cl          -4.74949086438357        2.75702669377401        1.48376489064898
43
 energy: -85.350402772985 gnorm: 0.070341738149 xtb: 6.6.0 (8843059)
O            2.19292193858899        5.14194408623507       -0.59416088963547
Cl           1.01797890151101        4.47928480665852       -1.63414079783516
H            1.75897535199180        5.13294109463284        0.26734681678500
O            1.28389080068418       -3.55017046529719        0.22948655268340
H            1.10659240457102       -4.03418736228781        1.03796167565273
H            1.69084249707490       -4.16271411019590       -0.38575314132610
O           -0.40923378791099        0.48437074208542       -4.59331920711149
H           -0.72899280887026        0.36107120149697       -3.69783550642742
H           -1.07647167329469        0.43940713614161       -5.28042254491973
O           -2.55763392121178       -2.31478622570537        3.49944575162188
H           -2.39269827128945       -1.37636029797758        3.39224835134584
H           -2.98567934826823       -2.63544786862411        2.70364935404603
O           -0.80327473523696        4.85406375044296        1.72466384753766
H           -1.71417002842161        4.68792367137197        1.97367516801591
H           -0.17599528928318        4.63240059844772        2.41511644952671
C           -5.06413078493565        0.55228804202006       -0.11582335815104
C           -4.67925156584477       -0.58828269104167       -0.80986047790172
C           -3.34251985398827       -0.93513206043076       -0.86016526511839
C           -2.40402170704448       -0.08362603195087       -0.26767175667280
C           -2.80302706671195        1.05979258430728        0.42390985142098
C           -4.15291709680332        1.36684659127778        0.55006087477253
H           -5.39391717748503       -1.17408368168659       -1.37282309544815
H           -2.95628952941352       -1.72570896853045       -1.49404989486745
C            2.41039995173344       -0.16310969546489        0.58506493355176
C            2.62482983243262        0.86189443642071        1.50987001175246
C            3.48055715718860       -0.79291475409257       -0.05678082393402
C            3.89842102105079        1.35247819445225        1.76864020371239
H            1.82550499156211        1.36665244723611        2.02819911506158
C            4.75229150596938       -0.34677046742703        0.26370002443806
C            4.95301223807619        0.71130749610846        1.13792311862789
H            4.05233665241356        2.10643393866894        2.52968960338239
H            5.57163403585625       -0.78006546453564       -0.29462137717987
Cl          -6.76784190866357        0.80689025235264        0.07847974206996
Cl           6.61891206340333        1.17148524659316        1.37379180842454
N           -1.07236555835587       -0.52489571609483       -0.22881608830756
H           -0.78567603722040       -1.24635728818790       -0.87151134934197
C            0.00628397509491        0.15016897789438        0.32038083462669
O           -0.03449979493191        1.26197563272652        0.79097304576184
N            1.13271720961557       -0.64580209527526        0.24401435519536
H            1.06682489698961       -1.52920566505696       -0.23671636243755
H            3.31111929966763       -1.70297080139667       -0.62291998736397
H           -2.01997005247692        1.67663451124917        0.83414658755823
Cl          -4.73070977442530        2.79144156464216        1.35133287562150
43
 energy: -85.370172394416 gnorm: 0.077553902189 xtb: 6.6.0 (8843059)
O            1.50088165726055        4.74237413574455       -0.13876135196553
Cl           0.77007536389330        4.47926184318947       -1.65463098809102
H            1.35942683964408        3.93711657729107        0.37323183277975
O            0.60284151782008       -3.48215554594944        0.71223405462706
H            0.64464205307628       -4.38348675597138        0.38789801378410
H           -0.03528545707648       -3.37353851434243        1.41957809082179
O           -0.23627475214085        0.70197324156480       -3.25461139907424
H           -0.06129905930762        1.11250480170143       -4.10324972688787
H           -0.03064589430230        1.32216528134731       -2.55288657765746
O           -1.14692602480824       -1.99886103384966        2.62212267976484
H           -1.73352123213586       -1.46278514559431        2.08559031555508
H           -0.27708930219207       -1.60289381625702        2.54509851577523
O           -0.13710797947859        3.86207215548511        1.62565123472090
H           -0.16023707258278        4.50843733818252        2.33347642104499
H           -0.95128470080457        3.35977550378732        1.56120597107741
C           -5.12178916672728        0.54599182579776       -0.18587886774522
C           -4.72760499444901       -0.58035334857060       -0.89769801850670
C           -3.40096963783726       -0.96361108891213       -0.95097902778395
C           -2.47046701155212       -0.20984372941087       -0.22786803214311
C           -2.84241426535204        0.99682022882929        0.36417411532992
C           -4.17540337586325        1.39053765714196        0.38710811570094
H           -5.52136402274477       -1.21132940427820       -1.27539163437346
H           -3.20383029399427       -1.97737063033185       -1.28177067882030
C            2.36297388209797       -0.18845781305395        0.61771114035430
C            2.58110587880457        0.97256163072054        1.36358679481524
C            3.43183928235537       -1.01900583449551        0.26903695192586
C            3.86706981470395        1.41892938156295        1.64057349036991
H            1.69099850842946        1.50514474914095        1.65757669466452
C            4.70334004251713       -0.51904327325948        0.49791309740248
C            4.93463998688544        0.68129254726297        1.15348778467836
H            4.08476473016968        2.36095629218411        2.12691674030693
H            5.55365424623309       -1.15179562179811        0.28024409451236
Cl          -6.78904783718782        1.01414473519078       -0.10657606545392
Cl           6.53660702239123        1.37061956849637        1.18739646638176
N           -1.10530194959841       -0.52489264103495       -0.30914161175786
H           -0.91632226087035       -1.48122925799695       -0.56499677146708
C           -0.06086387990344        0.18676636094424        0.25963346710265
O           -0.09748072569267        1.34853391442870        0.58855566841944
N            1.06402802190782       -0.61471950629162        0.28182219272623
H            0.93744606369109       -1.47563241741176       -0.22675592936969
H            3.23324184828317       -1.88827138664208       -0.34931672021166
H           -2.15846094650447        1.65334943833329        0.87714945606297
Cl          -4.56801896982270        2.84177529758235        1.25030817180445
43
 energy: -85.353909935640 gnorm: 0.080142822058 xtb: 6.6.0 (8843059)
O            1.53322325919306        4.18906105964982       -0.37258349436740
Cl           0.50549379141112        4.40155194882443       -1.71414468705167
H            1.52201233581159        3.26053521593601       -0.11124024335162
O           -0.17270660843406       -4.18901632461754        0.87204075280538
H           -0.60951391163456       -5.04151376838328        0.82977267335312
H            0.61545180847554       -4.29633018195674        0.33666301039957
O            0.15151131570758        1.03088836955216       -2.06128639511638
H           -0.49377538123167        1.44744232831309       -2.63524418500935
H            0.13592263376608        1.69533298338783       -1.37019344440852
O            0.00051620472075       -1.17229177715654        2.39594377110163
H            0.04406798945939       -1.98271241555474        1.88539514072708
H            0.20296400162478       -1.35413975999263        3.31533753001298
O           -0.17374398920687        3.02543846198336        2.66698560553110
H           -1.12608502577900        2.91505622082274        2.68118805754057
H           -0.07171666679024        3.71359710274831        2.00716217272272
C           -5.16554464642537        0.65714061111527       -0.37256660750244
C           -4.79760726536026       -0.58931792067673       -0.86418060784648
C           -3.49262305970762       -1.03740903621670       -0.78725662193086
C           -2.50351665114572       -0.18657611112706       -0.28263625098313
C           -2.86383916121624        1.02891836761986        0.29842951591019
C           -4.20408235917533        1.39775350583910        0.30882947569003
H           -5.53447536896316       -1.17753350145891       -1.39508970550685
H           -3.14377685175026       -1.91495617831645       -1.32037272398987
C            2.37903310674518       -0.14331928428281        0.42436757834598
C            2.58053990181206        1.16156185049137        0.88104953630042
C            3.48027348832883       -1.00413201822486        0.43568005790083
C            3.86019187879452        1.65983145948137        1.09054233860936
H            1.75542271371054        1.79362821609003        1.16747525111293
C            4.76184604592188       -0.54905199299566        0.69937488187503
C            4.93971097359504        0.79740571234616        0.98133161653253
H            3.89014837207815        2.71502724095659        1.32928904540458
H            5.64013300153562       -1.17574984591063        0.61781886959362
Cl          -6.79329592278385        1.25169915339963       -0.32637706533316
Cl           6.50217986633545        1.53516233488736        1.22013283684545
N           -1.18547774605397       -0.65726771891387       -0.17890728526219
H           -0.98907914471650       -1.45645404029335       -0.76070081989424
C           -0.08840625937393        0.09694552234848        0.20633423017556
O           -0.11584315057945        1.28332599304251        0.43212846515635
N            1.10369426754541       -0.57328383033584        0.01154550820141
H            1.08378711359655       -1.55016414184119       -0.23574842266172
H            3.42832979729956       -2.06683877305704        0.22265190331138
H           -2.05186309813585        1.59180973164338        0.72949172035061
Cl          -4.56643153553932        2.88451514970215        1.12344283485203
43
 energy: -85.363975473410 gnorm: 0.064535385333 xtb: 6.6.0 (8843059)
O            1.19601905367299        3.69432757285749       -0.62537572071675
Cl           0.18922677540529        4.41624130931262       -1.79429681992915
H            0.98707199341901        4.20323576114779        0.16705080837053
O           -0.72767406846698       -4.46116701150817        0.65425950992834
H            0.20067761964509       -4.25815941577968        0.78189242712844
H           -0.87654288076617       -5.10499174567868        1.34900195830825
O            0.59537643702653        1.57702405586078       -3.25338023017739
H            1.24594786725806        2.06136944918977       -2.74200363654752
H           -0.14879797604087        2.12968143971716       -3.49856052584328
O            0.48687404156978       -1.11532767803469        3.48966172794031
H            0.91180192758460       -0.35660670381728        3.89353924407926
H            0.42397060644915       -0.87373940931953        2.56390962854910
O           -0.18711690743927        2.73522685289576        3.82606881190637
H            0.57027858945739        3.32013161211235        3.76625340693039
H           -0.06157896428660        2.07473829377477        3.14245054126018
C           -5.07561169050538        0.69583180783461       -0.34368728937431
C           -4.69690056093547       -0.52835602927936       -0.88096111156348
C           -3.39674105195621       -0.97342231988560       -0.73540016263638
C           -2.47206041235729       -0.26174460153916        0.03620234723939
C           -2.84811474330819        0.94841058941611        0.61844296389553
C           -4.11970451752370        1.43821301101128        0.34357500238521
H           -5.41410384064841       -1.11772698774378       -1.43692691994659
H           -3.09529253645068       -1.89923991991311       -1.21287897324469
C            2.39910619764750       -0.07366904389428        0.31147372339653
C            2.52014049731315        1.26338543549400        0.69814441543512
C            3.51861901489344       -0.87562314758313        0.07185399510801
C            3.80214456054607        1.75336944881399        0.91273772722567
H            1.61025089658094        1.84086986628345        0.72942723966439
C            4.79214670679807       -0.36351615827019        0.25876221506789
C            4.89694499774490        0.91163648818949        0.79456717973805
H            3.99479039535969        2.75610688715472        1.27154233126724
H            5.66841654997723       -0.97214257554961        0.07844411155743
Cl          -6.69051247552530        1.25571172757002       -0.63323434292756
Cl           6.47358266811141        1.43235447783725        1.32906353370240
N           -1.15387529465643       -0.74221528971820        0.00344904484955
H           -1.11555737564429       -1.70249628599482       -0.30010829212819
C           -0.05569442146011       -0.00838885965797        0.42334433225220
O           -0.16818250086313        1.10398099677785        0.88074371324989
N            1.13221996011088       -0.67746395486815        0.20096702878899
H            1.15389693165237       -1.48409091792946       -0.40296077291564
H            3.41050555059381       -1.92147521413093       -0.19634320291836
H           -2.22229770567248        1.63679159055883        1.16291617942533
Cl          -4.54606619478306        3.02146278811364        0.90650298796097
43
 energy: -85.360940104293 gnorm: 0.077316743445 xtb: 6.6.0 (8843059)
O            0.53096620743889        3.55653353568290       -0.83053762707553
Cl          -0.20410677467128        4.63436224216446       -1.92558085046991
H            1.47114886887169        3.74461033628774       -0.72437783094545
O           -1.09718893670231       -3.84164244045951        0.40474646388723
H           -1.48220134165008       -3.53747560012851        1.22851043710795
H           -0.22710143704927       -4.09791523778174        0.71557001107463
O            1.02950073274552        1.62828185736345       -4.24798317172986
H            0.60662631066049        2.48881472212906       -4.24826279563014
H            1.04394660517246        1.17789799726008       -3.40164706018421
O            0.89235871005852       -0.73421180941685        4.36719464356042
H            1.10943939693785       -0.07509658832497        3.70554415139557
H            1.01274235902729       -0.21404416009546        5.16360664555338
O           -0.00490672794252        1.72183479270486        4.42179990149014
H           -0.23894046785616        2.64590115049850        4.31850917721142
H           -0.21250091160989        1.22050495806832        3.63128620542107
C           -4.93572828752316        0.71207134028048       -0.50752092978618
C           -4.62190573780003       -0.60008110300368       -0.83992512691948
C           -3.37192604389887       -1.07942060946673       -0.49718447059826
C           -2.41716636753631       -0.31904027505997        0.18629603489612
C           -2.78130240136061        0.98573472064328        0.51775303655795
C           -4.04638103453524        1.48613669669488        0.23214262591479
H           -5.33050371626435       -1.25772221640558       -1.32596394634749
H           -3.16134681988459       -2.13700815882161       -0.61190335336363
C            2.36100519111052        0.05215369024930        0.34597574650153
C            2.56487058743855        1.28320808647298        0.97432441122080
C            3.43941842575380       -0.77614041152237        0.02223109681403
C            3.87136462366281        1.70633294019505        1.18338810866958
H            1.79222668486475        1.97617737981796        1.26618201188870
C            4.74477357723903       -0.34312400774146        0.18838061094185
C            4.92274143315376        0.88330089826334        0.81151236009459
H            4.06933724032948        2.65187915277367        1.67132731240658
H            5.58652022509054       -0.97064334049680       -0.07329012841178
Cl          -6.50587320923769        1.31777349251584       -0.92342649218111
Cl           6.59121841843104        1.29357767632456        1.11230684321346
N           -1.14444915014361       -0.87944287383258        0.37517869527257
H           -1.07022280064322       -1.67329862926632       -0.24129384107370
C           -0.05082046316973       -0.11687259692939        0.75369861525047
O           -0.18168328883009        0.81550830590642        1.51051773706151
N            1.08545688507827       -0.46418294318109        0.04906895870335
H            1.10193602061203       -1.40037317480394       -0.32392164105571
H            3.11301339164144       -1.65488058299473       -0.52430363491087
H           -2.10871140220810        1.52893945362902        1.16158253657715
Cl          -4.56385473661600        3.03815185800440        0.80557264868801
43
 energy: -85.350136572059 gnorm: 0.062969934509 xtb: 6.6.0 (8843059)
O           -0.13205196721431        3.26242292919755       -1.16856449432215
Cl          -0.54361438597776        4.70429311397296       -1.97652081514853
H            0.80611775739835        3.10169521571763       -1.32537773368261
O           -1.25025459753586       -3.51343027616308        0.36583852676857
H           -0.38853665146202       -3.81115414488932        0.06895171045305
H           -1.49395371047402       -4.02908569601524        1.13658460137178
O            1.27564414299571        1.60855151510251       -4.55497704200252
H            2.16297090326560        1.81120520676677       -4.25344368041746
H            1.14346602797067        2.25624368277003       -5.24950056228717
O            1.78386390855331       -1.31758760447647        4.78508449342592
H            2.44702347954009       -0.71826905820448        5.13203540721066
H            0.95181232583405       -0.84230219584691        4.81873902203952
O           -0.37960827132670        1.63633915218315        4.58805856009863
H           -0.60947635827930        1.62112074917473        3.65732311887130
H           -1.12555541525419        2.06889247055337        5.00734287544483
C           -4.93349833160382        0.73654287897324       -0.51718075212705
C           -4.62586082718090       -0.57206232844684       -0.86879518578077
C           -3.38021838363448       -1.02135796161960       -0.47357995540375
C           -2.50399216647771       -0.21603843612654        0.26166011903525
C           -2.91473628623100        1.00264213930948        0.80110752439006
C           -4.12020643656240        1.49776484091082        0.31727430148946
H           -5.30661098950432       -1.10871532860558       -1.51642117476017
H           -2.91920344588769       -1.87500013083015       -0.95809592598809
C            2.37774233623968        0.00148910999279        0.60288530938629
C            2.70952353456060        1.15635040684199        1.31569301624464
C            3.39631920330114       -0.75863564185436        0.02101893743183
C            4.04516024391267        1.53317047716242        1.37693236018233
H            1.97309345760442        1.71693561545547        1.86866763961916
C            4.71962167932942       -0.35033009766315        0.05592128833506
C            5.04417028115977        0.80776157262318        0.74698988444473
H            4.36046103523072        2.45665899309257        1.84500276649206
H            5.37903589194035       -1.03494377996319       -0.46105702454016
Cl          -6.37511111813979        1.40137238526982       -1.21357278679889
Cl           6.66943181438803        1.41444629489119        0.92886489572069
N           -1.20622005428651       -0.72632027759462        0.41957416525737
H           -1.11027043873080       -1.67796918070343        0.10190618433355
C           -0.10594501278031       -0.12143928174164        1.00636911772187
O           -0.13974620307165        0.66365071997124        1.92382517804425
N            1.07302345901060       -0.47845795000961        0.38120935137937
H            1.05070011367075       -0.84964638234776       -0.55557587144154
H            3.22431979340287       -1.72644971152134       -0.43852097774484
H           -2.23322198562087        1.68425345403961        1.28371577219190
Cl          -4.44429124635023        3.16955506214171        0.64198730746287
43
 energy: -85.347422299470 gnorm: 0.084751642976 xtb: 6.6.0 (8843059)
O           -0.85352544029614        2.92891363937084       -1.46031035419738
Cl          -0.81422890378675        4.56356352362251       -1.93732419967815
H           -1.30899897979801        2.51950032474588       -2.20563633302841
O           -0.92281020214375       -4.08890406343759        0.22094017683070
H           -1.34295930697296       -3.76057984262793        1.01781973990027
H           -0.57883737113984       -4.97957321571866        0.30886306288475
O            1.45953626147557        1.48181023941034       -4.17269561242118
H            2.21206959619118        1.25983509164284       -4.72384013094641
H            1.67388375934754        2.35522688139217       -3.84022360150414
O            2.43852993454169       -1.70947146441145        4.49070856037094
H            2.22807947105864       -0.80348596444235        4.25781556060813
H            1.65062194897981       -2.14587404813406        4.81948276018907
O           -0.67793598208626        1.64399008906610        4.63459660086584
H           -1.48470703898300        2.13111403080813        4.45804596823760
H           -0.55768889078901        1.28246827980768        3.75472077421354
C           -4.75019626785980        0.91094026257017       -0.62294410100871
C           -4.38326192502516       -0.38592412337249       -0.96091312683834
C           -3.21265353826809       -0.96311203329631       -0.50680207452713
C           -2.39748084565140       -0.12468557513451        0.26093774496868
C           -2.62353018776213        1.24296574874182        0.41367318254149
C           -3.86568090933217        1.74949155508823        0.04912890200156
H           -5.02369771877330       -1.01407052488174       -1.56598397596781
H           -3.11828340716663       -2.04242639183885       -0.55338783361141
C            2.33848766138678       -0.20632523000075        0.95138898409587
C            2.74325473259620        0.85907463506838        1.75945143745455
C            3.23352237829548       -0.71266285542446        0.00460918445200
C            4.00691100980102        1.42000335768731        1.62454107202539
H            2.03246294431334        1.28506308896994        2.44914327388445
C            4.51701076061548       -0.20943195804586       -0.13132187560561
C            4.87156063556312        0.82990683540976        0.71611729734441
H            4.31119491342622        2.19299891595434        2.31824467960055
H            5.32449725310793       -0.45178372041959       -0.80957017098732
Cl          -6.19208273336854        1.65177189472997       -1.23722373363062
Cl           6.46275782027055        1.54270586423405        0.76739077309604
N           -1.22851171506194       -0.68906839351165        0.79434195928919
H           -0.97821115633422       -1.50251608300355        0.25452032415447
C           -0.11198668082442        0.03796656026047        1.17592617860128
O           -0.04163333270558        1.13402346872765        1.67886166545050
N            1.02577810356898       -0.71477277849689        0.95883520386236
H            1.01430213518684       -1.66117478476435        0.61237124609873
H            2.78694092952420       -1.49178872359213       -0.60444966775576
H           -1.92949945518006        1.81653180019280        1.00638707980442
Cl          -4.41725653924500        3.29597699115321        0.60545537931139
43
 energy: -85.360646712821 gnorm: 0.079495248878 xtb: 6.6.0 (8843059)
O           -1.56677859015274        2.61758803153886       -1.96522677682235
Cl          -1.04717451154480        4.23176220063660       -1.80516421418625
H           -2.44280748485410        2.51508800753785       -1.57451800698590
O           -0.50095197756659       -3.78015123215557        0.32972521320193
H            0.11231319695648       -4.24145324196363       -0.24511857754581
H           -1.31213577563149       -4.29050293252947        0.30037783055081
O            1.50609760143733        1.24767821472662       -3.26425557406875
H            1.97343452069012        2.08272176763909       -3.32457252879643
H            0.56975998330736        1.31186909835716       -3.06806558015615
O            2.61552219472699       -1.85656296618378        3.60476727169158
H            3.47726535763989       -1.58720775950851        3.28199061999136
H            2.04505980717820       -1.09239935790232        3.50494078508410
O           -0.88302931967136        1.59864166795728        4.11802484677580
H           -0.98912859835005        0.83533332851417        3.54754897458973
H           -1.12978884526694        2.31226433094646        3.52710075413946
C           -4.67876923415094        1.13925424024174       -0.62078182704595
C           -4.26421027673055       -0.11128816442849       -1.06237659100079
C           -3.12005617016663       -0.72929871447372       -0.59476434250178
C           -2.25706437301378       -0.07538319519319        0.29097246530263
C           -2.68000796150654        1.18892174583240        0.70029936456512
C           -3.83897757510084        1.81662047497688        0.25850374772440
H           -4.94866810047279       -0.58344492375157       -1.75477981109688
H           -2.84930942985823       -1.71051468571619       -0.96880570275813
C            2.32210082013565       -0.37731927789457        1.32707662385811
C            2.78747712020852        0.60356614082560        2.20637573079577
C            3.14537680708865       -0.79373346898238        0.27699432465058
C            3.99430318588633        1.24744682756550        1.96418250698982
H            2.12685774049569        0.94424056768566        2.98732959943290
C            4.33734768077577       -0.11863256997855        0.07082630136949
C            4.74212692730765        0.96875417692729        0.83097611882812
H            4.28140609051050        2.06549409646170        2.61202980664152
H            4.85315985354198       -0.51370748550866       -0.79441539313697